Program Version,EnergyPlus-Linux-OMP-64 8.0.0.008, YMD=2014.01.14 15:13
1,5,Environment Title[],Latitude[deg],Longitude[deg],Time Zone[],Elevation[m]
2,6,Day of Simulation[],Month[],Day of Month[],DST Indicator[1=yes 0=no],Hour[],StartMinute[],EndMinute[],DayType
3,3,Cumulative Day of Simulation[],Month[],Day of Month[],DST Indicator[1=yes 0=no],DayType  ! When Daily Meters Requested
4,2,Cumulative Days of Simulation[],Month[]  ! When Monthly Meters Requested
5,1,Cumulative Days of Simulation[] ! When Run Period Meters Requested
11,11,Electricity:Facility [J] !RunPeriod [Value,Min,Month,Day,Hour,Minute,Max,Month,Day,Hour,Minute]
2970,11,Gas:Facility [J] !RunPeriod [Value,Min,Month,Day,Hour,Minute,Max,Month,Day,Hour,Minute]
3074,11,CO2:Facility [kg] !RunPeriod [Value,Min,Month,Day,Hour,Minute,Max,Month,Day,Hour,Minute]
3095,11,CO:Facility [kg] !RunPeriod [Value,Min,Month,Day,Hour,Minute,Max,Month,Day,Hour,Minute]
3116,11,CH4:Facility [kg] !RunPeriod [Value,Min,Month,Day,Hour,Minute,Max,Month,Day,Hour,Minute]
3137,11,NOx:Facility [kg] !RunPeriod [Value,Min,Month,Day,Hour,Minute,Max,Month,Day,Hour,Minute]
3158,11,N2O:Facility [kg] !RunPeriod [Value,Min,Month,Day,Hour,Minute,Max,Month,Day,Hour,Minute]
3179,11,SO2:Facility [kg] !RunPeriod [Value,Min,Month,Day,Hour,Minute,Max,Month,Day,Hour,Minute]
3200,11,PM:Facility [kg] !RunPeriod [Value,Min,Month,Day,Hour,Minute,Max,Month,Day,Hour,Minute]
3221,11,PM10:Facility [kg] !RunPeriod [Value,Min,Month,Day,Hour,Minute,Max,Month,Day,Hour,Minute]
3242,11,PM2.5:Facility [kg] !RunPeriod [Value,Min,Month,Day,Hour,Minute,Max,Month,Day,Hour,Minute]
3263,11,NH3:Facility [kg] !RunPeriod [Value,Min,Month,Day,Hour,Minute,Max,Month,Day,Hour,Minute]
3284,11,NMVOC:Facility [kg] !RunPeriod [Value,Min,Month,Day,Hour,Minute,Max,Month,Day,Hour,Minute]
3305,11,Hg:Facility [kg] !RunPeriod [Value,Min,Month,Day,Hour,Minute,Max,Month,Day,Hour,Minute]
3326,11,Pb:Facility [kg] !RunPeriod [Value,Min,Month,Day,Hour,Minute,Max,Month,Day,Hour,Minute]
3347,11,WaterEnvironmentalFactors:Facility [L] !RunPeriod [Value,Min,Month,Day,Hour,Minute,Max,Month,Day,Hour,Minute]
3368,11,Nuclear High:Facility [kg] !RunPeriod [Value,Min,Month,Day,Hour,Minute,Max,Month,Day,Hour,Minute]
3389,11,Nuclear Low:Facility [m3] !RunPeriod [Value,Min,Month,Day,Hour,Minute,Max,Month,Day,Hour,Minute]
3619,11,Carbon Equivalent:Facility [kg] !RunPeriod [Value,Min,Month,Day,Hour,Minute,Max,Month,Day,Hour,Minute]
End of Data Dictionary
1,PHILADELPHIA INTERNATIONAL AP ANN CLG .4% CONDNS DB=>MWB,  37.62,-122.40,  -8.00,   2.00
5,1
11,23065185514.6891,189236128.227024, 7,21, 5,60,309918331.206671, 7,21,15,60
2970,0.0,0.0, 7,21, 1,15,0.0, 7,21, 1,15
3074,3877.25768501924,31.8105931549627, 7,21, 5,60,52.0972714758413, 7,21,15,60
3095,2.83240478120383,2.323819654627851E-002, 7,21, 5,60,3.805797107217914E-002, 7,21,15,60
3116,7.30474425250205,5.993108180949840E-002, 7,21, 5,60,9.815113549315256E-002, 7,21,15,60
3137,7.75220885148702,6.360226269710266E-002, 7,21, 5,60,0.104163551118562, 7,21,15,60
3158,8.137397449582329E-002,6.676250603849396E-004, 7,21, 5,60,1.093391872497134E-003, 7,21,15,60
3179,23.3880981118948,0.191885434022202, 7,21, 5,60,0.314257187843564, 7,21,15,60
3200,0.0,0.0, 7,21, 1,15,0.0, 7,21, 1,15
3221,0.210792730418744,1.729428975866770E-003, 7,21, 5,60,2.832343628897762E-003, 7,21,15,60
3242,0.0,0.0, 7,21, 1,15,0.0, 7,21, 1,15
3263,0.0,0.0, 7,21, 1,15,0.0, 7,21, 1,15
3284,0.255100951792462,2.092951578190882E-003, 7,21, 5,60,3.427696743145776E-003, 7,21,15,60
3305,9.417515245647577E-005,7.726511115509378E-007, 7,21, 5,60,1.265396546316836E-006, 7,21,15,60
3326,2.966182857189023E-004,2.433576608999525E-006, 7,21, 5,60,3.985549739317783E-006, 7,21,15,60
3347,1454.62898966938,11.9343656627655, 7,21, 5,60,19.5453094758799, 7,21,15,60
3368,0.0,0.0, 7,21, 1,15,0.0, 7,21, 1,15
3389,0.0,0.0, 7,21, 1,15,0.0, 7,21, 1,15
3619,1109.71773309134,9.10457395199947, 7,21, 5,60,14.9108650234393, 7,21,15,60
1,PHILADELPHIA INTERNATIONAL AP ANN CLG .4% CONDNS DP=>MDB,  37.62,-122.40,  -8.00,   2.00
5,1
11,21159986039.8407,164808200.815327, 7,21, 5,60,292246452.927449, 7,21,15,60
2970,0.0,0.0, 7,21, 1,15,0.0, 7,21, 1,15
3074,3556.99365329722,27.7042585570565, 7,21, 5,60,49.1266287371042, 7,21,15,60
3095,2.59844628569244,2.023844706012216E-002, 7,21, 5,60,3.588786441949074E-002, 7,21,15,60
3116,6.70136757881755,5.219475719821406E-002, 7,21, 5,60,9.255445164212310E-002, 7,21,15,60
3137,7.11187130799046,5.539203629403141E-002, 7,21, 5,60,9.822403282891561E-002, 7,21,15,60
3158,7.465243074855804E-002,5.814433324764737E-004, 7,21, 5,60,1.031045485928040E-003, 7,21,15,60
3179,21.4562258443985,0.167115515626742, 7,21, 5,60,0.296337903268433, 7,21,15,60
3200,0.0,0.0, 7,21, 1,15,0.0, 7,21, 1,15
3221,0.193381112418104,1.506182147251274E-003, 7,21, 5,60,2.670840333303957E-003, 7,21,15,60
3242,0.0,0.0, 7,21, 1,15,0.0, 7,21, 1,15
3263,0.0,0.0, 7,21, 1,15,0.0, 7,21, 1,15
3284,0.234029445600638,1.822778701017517E-003, 7,21, 5,60,3.232245769377586E-003, 7,21,15,60
3305,8.639622300066964E-005,6.729118839289802E-007, 7,21, 5,60,1.193242267302774E-006, 7,21,15,60
3326,2.721174204723515E-004,2.119433462485106E-006, 7,21, 5,60,3.758289384646994E-006, 7,21,15,60
3347,1334.47567958859,10.3937939926194, 7,21, 5,60,18.4308148003225, 7,21,15,60
3368,0.0,0.0, 7,21, 1,15,0.0, 7,21, 1,15
3389,0.0,0.0, 7,21, 1,15,0.0, 7,21, 1,15
3619,1018.05431937333,7.92929165417603, 7,21, 5,60,14.0606313805755, 7,21,15,60
1,PHILADELPHIA INTERNATIONAL AP ANN CLG .4% CONDNS ENTH=>MDB,  37.62,-122.40,  -8.00,   2.00
5,1
11,26951642533.3497,198753661.965306, 7,21, 5,60,326200264.752232, 7,21,14,60
2970,0.0,0.0, 7,21, 1,15,0.0, 7,21, 1,15
3074,4530.57110985608,33.410490576368, 7,21, 5,60,54.8342645048502, 7,21,14,60
3095,3.30966170309534,2.440694968933959E-002, 7,21, 5,60,4.005739251157408E-002, 7,21,14,60
3116,8.53558519031185,6.294528474441245E-002, 7,21, 5,60,0.103307623847032, 7,21,14,60
3137,9.05844705545883,6.680110578653939E-002, 7,21, 5,60,0.109635908983225, 7,21,14,60
3158,9.508539485765778E-002,7.012029194136000E-004, 7,21, 5,60,1.150834534045874E-003, 7,21,14,60
3179,27.3289655288166,0.20153621323282, 7,21, 5,60,0.330767068458763, 7,21,14,60
3200,0.0,0.0, 7,21, 1,15,0.0, 7,21, 1,15
3221,0.246311061112283,1.816409716700933E-003, 7,21, 5,60,2.981144219570647E-003, 7,21,14,60
3242,0.0,0.0, 7,21, 1,15,0.0, 7,21, 1,15
3263,0.0,0.0, 7,21, 1,15,0.0, 7,21, 1,15
3284,0.298085166418848,2.198215501336286E-003, 7,21, 5,60,3.607774928159686E-003, 7,21,14,60
3305,1.100435564636668E-004,8.115112018043449E-007, 7,21, 5,60,1.331875680983363E-006, 7,21,14,60
3326,3.465981229788771E-004,2.555972092873837E-006, 7,21, 5,60,4.194935404713703E-006, 7,21,14,60
3347,1699.73228800823,12.534598445504, 7,21, 5,60,20.5721458968643, 7,21,14,60
3368,0.0,0.0, 7,21, 1,15,0.0, 7,21, 1,15
3389,0.0,0.0, 7,21, 1,15,0.0, 7,21, 1,15
3619,1296.70388456878,9.56248381610791, 7,21, 5,60,15.6942253121748, 7,21,14,60
1,PHILADELPHIA INTERNATIONAL AP ANN CLG .4% CONDNS WB=>MDB,  37.62,-122.40,  -8.00,   2.00
5,1
11,24415858224.641,191708016.377716, 7,21, 5,60,323164150.306479, 7,21,16,15
2970,0.0,0.0, 7,21, 1,15,0.0, 7,21, 1,15
3074,4104.30576756216,32.226117553094, 7,21, 5,60,54.3238936665191, 7,21,16,15
3095,2.99826738998592,2.354174441118350E-002, 7,21, 5,60,3.968455765763558E-002, 7,21,16,15
3116,7.73250229974382,6.071392878682259E-002, 7,21, 5,60,0.102346086402062, 7,21,16,15
3137,8.20616994930185,6.443306430455027E-002, 7,21, 5,60,0.108615470918007, 7,21,16,15
3158,8.613914781653359E-002,6.763458817805812E-004, 7,21, 5,60,1.140123122281257E-003, 7,21,16,15
3179,24.757680239786,0.194391928607004, 7,21, 5,60,0.327688448410769, 7,21,16,15
3200,0.0,0.0, 7,21, 1,15,0.0, 7,21, 1,15
3221,0.223136528314994,1.752019561675945E-003, 7,21, 5,60,2.953397169650908E-003, 7,21,16,15
3242,0.0,0.0, 7,21, 1,15,0.0, 7,21, 1,15
3263,0.0,0.0, 7,21, 1,15,0.0, 7,21, 1,15
3284,0.27003939196453,2.120290661137537E-003, 7,21, 5,60,3.574195502389654E-003, 7,21,16,15
3305,9.968994913120936E-005,7.827438308702135E-007, 7,21, 5,60,1.319479225701352E-006, 7,21,16,15
3326,3.139879367688837E-004,2.465365090617425E-006, 7,21, 5,60,4.155890972941316E-006, 7,21,16,15
3347,1539.81051479521,12.090257760877, 7,21, 5,60,20.3806703032284, 7,21,16,15
3368,0.0,0.0, 7,21, 1,15,0.0, 7,21, 1,15
3389,0.0,0.0, 7,21, 1,15,0.0, 7,21, 1,15
3619,1174.70162220342,9.22350202709752, 7,21, 5,60,15.548151046351, 7,21,16,15
1,PHILADELPHIA INTERNATIONAL AP ANN CLG 1% CONDNS DB=>MWB,  37.62,-122.40,  -8.00,   2.00
5,1
11,21759104076.4558,182101024.670455, 7,21, 5,60,288677509.19551, 7,21,15,60
2970,0.0,0.0, 7,21, 1,15,0.0, 7,21, 1,15
3074,3657.70539525222,30.6111822471035, 7,21, 5,60,48.5266892957652, 7,21,15,60
3095,2.67201798058877,2.236200582953186E-002, 7,21, 5,60,3.544959812920857E-002, 7,21,15,60
3116,6.89110826101354,5.767139451313306E-002, 7,21, 5,60,9.142416716221788E-002, 7,21,15,60
3137,7.31323488009679,6.120415439173988E-002, 7,21, 5,60,9.702451084061076E-002, 7,21,15,60
3158,7.676611918173598E-002,6.424524150373648E-004, 7,21, 5,60,1.018454252441758E-003, 7,21,15,60
3179,22.0637315335262,0.184650439015841, 7,21, 5,60,0.292718994324247, 7,21,15,60
3200,0.0,0.0, 7,21, 1,15,0.0, 7,21, 1,15
3221,0.198856452154729,1.664221264463287E-003, 7,21, 5,60,2.638223756537762E-003, 7,21,15,60
3242,0.0,0.0, 7,21, 1,15,0.0, 7,21, 1,15
3263,0.0,0.0, 7,21, 1,15,0.0, 7,21, 1,15
3284,0.240655691085601,2.014037332855231E-003, 7,21, 5,60,3.192773251702336E-003, 7,21,15,60
3305,8.884242194416898E-005,7.435184837294673E-007, 7,21, 5,60,1.178670270045266E-006, 7,21,15,60
3326,2.798220784232215E-004,2.341819177262050E-006, 7,21, 5,60,3.712392768254253E-006, 7,21,15,60
3347,1372.25965768576,11.4843832218669, 7,21, 5,60,18.205735794924, 7,21,15,60
3368,0.0,0.0, 7,21, 1,15,0.0, 7,21, 1,15
3389,0.0,0.0, 7,21, 1,15,0.0, 7,21, 1,15
3619,1046.87922993055,8.76128813974685, 7,21, 5,60,13.8889215044413, 7,21,15,60
1,PHILADELPHIA INTERNATIONAL AP ANN CLG 1% CONDNS DP=>MDB,  37.62,-122.40,  -8.00,   2.00
5,1
11,20148307471.5052,160875498.859152, 7,21, 5,60,274419671.878112, 7,21,15,60
2970,0.0,0.0, 7,21, 1,15,0.0, 7,21, 1,15
3074,3386.93048596002,27.0431713582235, 7,21, 5,60,46.1299468427106, 7,21,15,60
3095,2.47421215750084,1.975551125990392E-002, 7,21, 5,60,3.369873570663217E-002, 7,21,15,60
3116,6.38096897622569,5.094927048869359E-002, 7,21, 5,60,8.690871008379811E-002, 7,21,15,60
3137,6.77184614117289,5.407025516656115E-002, 7,21, 5,60,9.223245171823348E-002, 7,21,15,60
3158,7.108322875947028E-002,5.675687599750900E-004, 7,21, 5,60,9.681526023859795E-004, 7,21,15,60
3179,20.4303837761063,0.163127755843181, 7,21, 5,60,0.278261547284406, 7,21,15,60
3200,0.0,0.0, 7,21, 1,15,0.0, 7,21, 1,15
3221,0.184135381982086,1.470241184073795E-003, 7,21, 5,60,2.507921381294067E-003, 7,21,15,60
3242,0.0,0.0, 7,21, 1,15,0.0, 7,21, 1,15
3263,0.0,0.0, 7,21, 1,15,0.0, 7,21, 1,15
3284,0.222840280634847,1.779283017382227E-003, 7,21, 5,60,3.035081570971920E-003, 7,21,15,60
3305,8.226553940615566E-005,6.568546618419196E-007, 7,21, 5,60,1.120455520278332E-006, 7,21,15,60
3326,2.591072340835567E-004,2.068858915328701E-006, 7,21, 5,60,3.529036980352522E-006, 7,21,15,60
3347,1270.67315899795,10.1457742110513, 7,21, 5,60,17.306551026665, 7,21,15,60
3368,0.0,0.0, 7,21, 1,15,0.0, 7,21, 1,15
3389,0.0,0.0, 7,21, 1,15,0.0, 7,21, 1,15
3619,969.38019764318,7.74008055518225, 7,21, 5,60,13.2029450185132, 7,21,15,60
1,PHILADELPHIA INTERNATIONAL AP ANN CLG 1% CONDNS ENTH=>MDB,  37.62,-122.40,  -8.00,   2.00
5,1
11,24748318596.6663,178443723.213706, 7,21, 5,60,322806050.740732, 7,21,14,60
2970,0.0,0.0, 7,21, 1,15,0.0, 7,21, 1,15
3074,4160.19235609961,29.996389872224, 7,21, 5,60,54.263697129517, 7,21,14,60
3095,3.03909352367063,2.191288921064314E-002, 7,21, 5,60,3.964058303096187E-002, 7,21,14,60
3116,7.83779249956423,5.651312714178078E-002, 7,21, 5,60,0.10223267626959, 7,21,14,60
3137,8.31790988033956,5.997493537212668E-002, 7,21, 5,60,0.10849511365396, 7,21,14,60
3158,8.731206800903885E-002,6.295494554979558E-004, 7,21, 5,60,1.138859747013302E-003, 7,21,14,60
3179,25.0947950570197,0.180941935338698, 7,21, 5,60,0.327325335451102, 7,21,14,60
3200,0.0,0.0, 7,21, 1,15,0.0, 7,21, 1,15
3221,0.226174883654934,1.630797186450062E-003, 7,21, 5,60,2.950124497719548E-003, 7,21,14,60
3242,0.0,0.0, 7,21, 1,15,0.0, 7,21, 1,15
3263,0.0,0.0, 7,21, 1,15,0.0, 7,21, 1,15
3284,0.27371640367913,1.973587578743592E-003, 7,21, 5,60,3.570234921192494E-003, 7,21,14,60
3305,1.010473848301887E-004,7.285857218815629E-007, 7,21, 5,60,1.318017105174408E-006, 7,21,14,60
3326,3.182633771531291E-004,2.294786280528263E-006, 7,21, 5,60,4.151285812525811E-006, 7,21,14,60
3347,1560.77746061736,11.2537318481956, 7,21, 5,60,20.358086396015, 7,21,14,60
3368,0.0,0.0, 7,21, 1,15,0.0, 7,21, 1,15
3389,0.0,0.0, 7,21, 1,15,0.0, 7,21, 1,15
3619,1190.69703529696,8.58532717558162, 7,21, 5,60,15.5309220742246, 7,21,14,60
1,PHILADELPHIA INTERNATIONAL AP ANN CLG 1% CONDNS WB=>MDB,  37.62,-122.40,  -8.00,   2.00
5,1
11,22607694955.0327,180157313.621651, 7,21, 5,60,302357229.41572, 7,21,15,60
2970,0.0,0.0, 7,21, 1,15,0.0, 7,21, 1,15
3074,3800.35352194099,30.2844444197996, 7,21, 5,60,50.8262502647826, 7,21,15,60
3095,2.77622494047801,2.212331811273877E-002, 7,21, 5,60,3.712946777225046E-002, 7,21,15,60
3116,7.15985699225884,5.705582122397694E-002, 7,21, 5,60,9.575653455595864E-002, 7,21,15,60
3137,7.59844627438648,6.055087310823697E-002, 7,21, 5,60,0.101622264806624, 7,21,15,60
3158,7.975994780135522E-002,6.355950024571855E-004, 7,21, 5,60,1.066716305378661E-003, 7,21,15,60
3179,22.9242026844031,0.182679516012354, 7,21, 5,60,0.30659023062754, 7,21,15,60
3200,0.0,0.0, 7,21, 1,15,0.0, 7,21, 1,15
3221,0.206611724194043,1.646457689188271E-003, 7,21, 5,60,2.763242719630269E-003, 7,21,15,60
3242,0.0,0.0, 7,21, 1,15,0.0, 7,21, 1,15
3263,0.0,0.0, 7,21, 1,15,0.0, 7,21, 1,15
3284,0.250041106202661,1.992539888655462E-003, 7,21, 5,60,3.344070957337868E-003, 7,21,15,60
3305,9.230721850139837E-005,7.355823115172019E-007, 7,21, 5,60,1.234524567704386E-006, 7,21,15,60
3326,2.907349571217199E-004,2.316823053174435E-006, 7,21, 5,60,3.888313970286164E-006, 7,21,15,60
3347,1425.77689003409,11.3618011408631, 7,21, 5,60,19.0684610303318, 7,21,15,60
3368,0.0,0.0, 7,21, 1,15,0.0, 7,21, 1,15
3389,0.0,0.0, 7,21, 1,15,0.0, 7,21, 1,15
3619,1087.7068376468,8.66777184795334, 7,21, 5,60,14.5470834820429, 7,21,15,60
1,PHILADELPHIA INTERNATIONAL AP ANN CLG 2% CONDNS DB=>MWB,  37.62,-122.40,  -8.00,   2.00
5,1
11,20224646639.2327,174343238.900876, 7,21, 5,60,263761799.139332, 7,21,15,60
2970,0.0,0.0, 7,21, 1,15,0.0, 7,21, 1,15
3074,3399.76310005502,29.3070984592373, 7,21, 5,60,44.3383584353217, 7,21,15,60
3095,2.48358660729777,2.140934973702762E-002, 7,21, 5,60,3.238994893430994E-002, 7,21,15,60
3116,6.40514559064499,5.521450375990754E-002, 7,21, 5,60,8.353336178742637E-002, 7,21,15,60
3137,6.79750373544611,5.859676259458454E-002, 7,21, 5,60,8.865034069072941E-002, 7,21,15,60
3158,7.135255334321290E-002,6.150829468422918E-004, 7,21, 5,60,9.305516273635625E-004, 7,21,15,60
3179,20.5077916921819,0.176784044245489, 7,21, 5,60,0.267454464327282, 7,21,15,60
3200,0.0,0.0, 7,21, 1,15,0.0, 7,21, 1,15
3221,0.184833045635947,1.593322860315109E-003, 7,21, 5,60,2.410519082334353E-003, 7,21,15,60
3242,0.0,0.0, 7,21, 1,15,0.0, 7,21, 1,15
3263,0.0,0.0, 7,21, 1,15,0.0, 7,21, 1,15
3284,0.223684591829914,1.928236222243693E-003, 7,21, 5,60,2.917205498481010E-003, 7,21,15,60
3305,8.257723222798708E-005,7.118434444322782E-007, 7,21, 5,60,1.076939425885892E-006, 7,21,15,60
3326,2.600889557805323E-004,2.242054052265270E-006, 7,21, 5,60,3.391976736931807E-006, 7,21,15,60
3347,1275.48756494985,10.9951307045227, 7,21, 5,60,16.6344016245211, 7,21,15,60
3368,0.0,0.0, 7,21, 1,15,0.0, 7,21, 1,15
3389,0.0,0.0, 7,21, 1,15,0.0, 7,21, 1,15
3619,973.05304597569,8.38804369163512, 7,21, 5,60,12.6901708911287, 7,21,15,60
1,PHILADELPHIA INTERNATIONAL AP ANN CLG 2% CONDNS DP=>MDB,  37.62,-122.40,  -8.00,   2.00
