Program Version,EnergyPlus-Linux-OMP-64 8.0.0.008, YMD=2014.01.14 15:13
1,5,Environment Title[],Latitude[deg],Longitude[deg],Time Zone[],Elevation[m]
2,6,Day of Simulation[],Month[],Day of Month[],DST Indicator[1=yes 0=no],Hour[],StartMinute[],EndMinute[],DayType
3,3,Cumulative Day of Simulation[],Month[],Day of Month[],DST Indicator[1=yes 0=no],DayType  ! When Daily Meters Requested
4,2,Cumulative Days of Simulation[],Month[]  ! When Monthly Meters Requested
5,1,Cumulative Days of Simulation[] ! When Run Period Meters Requested
11,11,Electricity:Facility [J] !RunPeriod [Value,Min,Month,Day,Hour,Minute,Max,Month,Day,Hour,Minute]
2970,11,Gas:Facility [J] !RunPeriod [Value,Min,Month,Day,Hour,Minute,Max,Month,Day,Hour,Minute]
3074,11,CO2:Facility [kg] !RunPeriod [Value,Min,Month,Day,Hour,Minute,Max,Month,Day,Hour,Minute]
3095,11,CO:Facility [kg] !RunPeriod [Value,Min,Month,Day,Hour,Minute,Max,Month,Day,Hour,Minute]
3116,11,CH4:Facility [kg] !RunPeriod [Value,Min,Month,Day,Hour,Minute,Max,Month,Day,Hour,Minute]
3137,11,NOx:Facility [kg] !RunPeriod [Value,Min,Month,Day,Hour,Minute,Max,Month,Day,Hour,Minute]
3158,11,N2O:Facility [kg] !RunPeriod [Value,Min,Month,Day,Hour,Minute,Max,Month,Day,Hour,Minute]
3179,11,SO2:Facility [kg] !RunPeriod [Value,Min,Month,Day,Hour,Minute,Max,Month,Day,Hour,Minute]
3200,11,PM:Facility [kg] !RunPeriod [Value,Min,Month,Day,Hour,Minute,Max,Month,Day,Hour,Minute]
3221,11,PM10:Facility [kg] !RunPeriod [Value,Min,Month,Day,Hour,Minute,Max,Month,Day,Hour,Minute]
3242,11,PM2.5:Facility [kg] !RunPeriod [Value,Min,Month,Day,Hour,Minute,Max,Month,Day,Hour,Minute]
3263,11,NH3:Facility [kg] !RunPeriod [Value,Min,Month,Day,Hour,Minute,Max,Month,Day,Hour,Minute]
3284,11,NMVOC:Facility [kg] !RunPeriod [Value,Min,Month,Day,Hour,Minute,Max,Month,Day,Hour,Minute]
3305,11,Hg:Facility [kg] !RunPeriod [Value,Min,Month,Day,Hour,Minute,Max,Month,Day,Hour,Minute]
3326,11,Pb:Facility [kg] !RunPeriod [Value,Min,Month,Day,Hour,Minute,Max,Month,Day,Hour,Minute]
3347,11,WaterEnvironmentalFactors:Facility [L] !RunPeriod [Value,Min,Month,Day,Hour,Minute,Max,Month,Day,Hour,Minute]
3368,11,Nuclear High:Facility [kg] !RunPeriod [Value,Min,Month,Day,Hour,Minute,Max,Month,Day,Hour,Minute]
3389,11,Nuclear Low:Facility [m3] !RunPeriod [Value,Min,Month,Day,Hour,Minute,Max,Month,Day,Hour,Minute]
3619,11,Carbon Equivalent:Facility [kg] !RunPeriod [Value,Min,Month,Day,Hour,Minute,Max,Month,Day,Hour,Minute]
End of Data Dictionary
1,PHILADELPHIA INTERNATIONAL AP ANN CLG .4% CONDNS DB=>MWB,  37.62,-122.40,  -8.00,   2.00
5,1
11,23065185514.6891,189236128.227024, 7,21, 5,60,309918331.206671, 7,21,15,60
2970,0.0,0.0, 7,21, 1,15,0.0, 7,21, 1,15
3074,3877.25768501924,31.8105931549627, 7,21, 5,60,52.0972714758413, 7,21,15,60
3095,2.83240478120383,2.323819654627851E-002, 7,21, 5,60,3.805797107217914E-002, 7,21,15,60
3116,7.30474425250205,5.993108180949840E-002, 7,21, 5,60,9.815113549315256E-002, 7,21,15,60
3137,7.75220885148702,6.360226269710266E-002, 7,21, 5,60,0.104163551118562, 7,21,15,60
3158,8.137397449582329E-002,6.676250603849396E-004, 7,21, 5,60,1.093391872497134E-003, 7,21,15,60
3179,23.3880981118948,0.191885434022202, 7,21, 5,60,0.314257187843564, 7,21,15,60
3200,0.0,0.0, 7,21, 1,15,0.0, 7,21, 1,15
3221,0.210792730418744,1.729428975866770E-003, 7,21, 5,60,2.832343628897762E-003, 7,21,15,60
3242,0.0,0.0, 7,21, 1,15,0.0, 7,21, 1,15
3263,0.0,0.0, 7,21, 1,15,0.0, 7,21, 1,15
3284,0.255100951792462,2.092951578190882E-003, 7,21, 5,60,3.427696743145776E-003, 7,21,15,60
3305,9.417515245647577E-005,7.726511115509378E-007, 7,21, 5,60,1.265396546316836E-006, 7,21,15,60
3326,2.966182857189023E-004,2.433576608999525E-006, 7,21, 5,60,3.985549739317783E-006, 7,21,15,60
3347,1454.62898966938,11.9343656627655, 7,21, 5,60,19.5453094758799, 7,21,15,60
3368,0.0,0.0, 7,21, 1,15,0.0, 7,21, 1,15
3389,0.0,0.0, 7,21, 1,15,0.0, 7,21, 1,15
3619,1109.71773309134,9.10457395199947, 7,21, 5,60,14.9108650234393, 7,21,15,60
1,PHILADELPHIA INTERNATIONAL AP ANN CLG .4% CONDNS DP=>MDB,  37.62,-122.40,  -8.00,   2.00
5,1
11,21159986039.8407,164808200.815327, 7,21, 5,60,292246452.927449, 7,21,15,60
2970,0.0,0.0, 7,21, 1,15,0.0, 7,21, 1,15
3074,3556.99365329722,27.7042585570565, 7,21, 5,60,49.1266287371042, 7,21,15,60
3095,2.59844628569244,2.023844706012216E-002, 7,21, 5,60,3.588786441949074E-002, 7,21,15,60
3116,6.70136757881755,5.219475719821406E-002, 7,21, 5,60,9.255445164212310E-002, 7,21,15,60
3137,7.11187130799046,5.539203629403141E-002, 7,21, 5,60,9.822403282891561E-002, 7,21,15,60
3158,7.465243074855804E-002,5.814433324764737E-004, 7,21, 5,60,1.031045485928040E-003, 7,21,15,60
3179,21.4562258443985,0.167115515626742, 7,21, 5,60,0.296337903268433, 7,21,15,60
3200,0.0,0.0, 7,21, 1,15,0.0, 7,21, 1,15
3221,0.193381112418104,1.506182147251274E-003, 7,21, 5,60,2.670840333303957E-003, 7,21,15,60
3242,0.0,0.0, 7,21, 1,15,0.0, 7,21, 1,15
3263,0.0,0.0, 7,21, 1,15,0.0, 7,21, 1,15
3284,0.234029445600638,1.822778701017517E-003, 7,21, 5,60,3.232245769377586E-003, 7,21,15,60
3305,8.639622300066964E-005,6.729118839289802E-007, 7,21, 5,60,1.193242267302774E-006, 7,21,15,60
3326,2.721174204723515E-004,2.119433462485106E-006, 7,21, 5,60,3.758289384646994E-006, 7,21,15,60
3347,1334.47567958859,10.3937939926194, 7,21, 5,60,18.4308148003225, 7,21,15,60
3368,0.0,0.0, 7,21, 1,15,0.0, 7,21, 1,15
3389,0.0,0.0, 7,21, 1,15,0.0, 7,21, 1,15
3619,1018.05431937333,7.92929165417603, 7,21, 5,60,14.0606313805755, 7,21,15,60
1,PHILADELPHIA INTERNATIONAL AP ANN CLG .4% CONDNS ENTH=>MDB,  37.62,-122.40,  -8.00,   2.00
5,1
11,26951642533.3497,198753661.965306, 7,21, 5,60,326200264.752232, 7,21,14,60
2970,0.0,0.0, 7,21, 1,15,0.0, 7,21, 1,15
3074,4530.57110985608,33.410490576368, 7,21, 5,60,54.8342645048502, 7,21,14,60
3095,3.30966170309534,2.440694968933959E-002, 7,21, 5,60,4.005739251157408E-002, 7,21,14,60
3116,8.53558519031185,6.294528474441245E-002, 7,21, 5,60,0.103307623847032, 7,21,14,60
3137,9.05844705545883,6.680110578653939E-002, 7,21, 5,60,0.109635908983225, 7,21,14,60
3158,9.508539485765778E-002,7.012029194136000E-004, 7,21, 5,60,1.150834534045874E-003, 7,21,14,60
3179,27.3289655288166,0.20153621323282, 7,21, 5,60,0.330767068458763, 7,21,14,60
3200,0.0,0.0, 7,21, 1,15,0.0, 7,21, 1,15
3221,0.246311061112283,1.816409716700933E-003, 7,21, 5,60,2.981144219570647E-003, 7,21,14,60
3242,0.0,0.0, 7,21, 1,15,0.0, 7,21, 1,15
3263,0.0,0.0, 7,21, 1,15,0.0, 7,21, 1,15
3284,0.298085166418848,2.198215501336286E-003, 7,21, 5,60,3.607774928159686E-003, 7,21,14,60
3305,1.100435564636668E-004,8.115112018043449E-007, 7,21, 5,60,1.331875680983363E-006, 7,21,14,60
3326,3.465981229788771E-004,2.555972092873837E-006, 7,21, 5,60,4.194935404713703E-006, 7,21,14,60
3347,1699.73228800823,12.534598445504, 7,21, 5,60,20.5721458968643, 7,21,14,60
3368,0.0,0.0, 7,21, 1,15,0.0, 7,21, 1,15
3389,0.0,0.0, 7,21, 1,15,0.0, 7,21, 1,15
3619,1296.70388456878,9.56248381610791, 7,21, 5,60,15.6942253121748, 7,21,14,60
1,PHILADELPHIA INTERNATIONAL AP ANN CLG .4% CONDNS WB=>MDB,  37.62,-122.40,  -8.00,   2.00
5,1
11,24415858224.641,191708016.377716, 7,21, 5,60,323164150.306479, 7,21,16,15
2970,0.0,0.0, 7,21, 1,15,0.0, 7,21, 1,15
3074,4104.30576756216,32.226117553094, 7,21, 5,60,54.3238936665191, 7,21,16,15
3095,2.99826738998592,2.354174441118350E-002, 7,21, 5,60,3.968455765763558E-002, 7,21,16,15
3116,7.73250229974382,6.071392878682259E-002, 7,21, 5,60,0.102346086402062, 7,21,16,15
3137,8.20616994930185,6.443306430455027E-002, 7,21, 5,60,0.108615470918007, 7,21,16,15
3158,8.613914781653359E-002,6.763458817805812E-004, 7,21, 5,60,1.140123122281257E-003, 7,21,16,15
3179,24.757680239786,0.194391928607004, 7,21, 5,60,0.327688448410769, 7,21,16,15
3200,0.0,0.0, 7,21, 1,15,0.0, 7,21, 1,15
3221,0.223136528314994,1.752019561675945E-003, 7,21, 5,60,2.953397169650908E-003, 7,21,16,15
3242,0.0,0.0, 7,21, 1,15,0.0, 7,21, 1,15
3263,0.0,0.0, 7,21, 1,15,0.0, 7,21, 1,15
3284,0.27003939196453,2.120290661137537E-003, 7,21, 5,60,3.574195502389654E-003, 7,21,16,15
3305,9.968994913120936E-005,7.827438308702135E-007, 7,21, 5,60,1.319479225701352E-006, 7,21,16,15
3326,3.139879367688837E-004,2.465365090617425E-006, 7,21, 5,60,4.155890972941316E-006, 7,21,16,15
3347,1539.81051479521,12.090257760877, 7,21, 5,60,20.3806703032284, 7,21,16,15
3368,0.0,0.0, 7,21, 1,15,0.0, 7,21, 1,15
3389,0.0,0.0, 7,21, 1,15,0.0, 7,21, 1,15
3619,1174.70162220342,9.22350202709752, 7,21, 5,60,15.548151046351, 7,21,16,15
1,PHILADELPHIA INTERNATIONAL AP ANN CLG 1% CONDNS DB=>MWB,  37.62,-122.40,  -8.00,   2.00
5,1
11,21759104076.4558,182101024.670455, 7,21, 5,60,288677509.19551, 7,21,15,60
2970,0.0,0.0, 7,21, 1,15,0.0, 7,21, 1,15
3074,3657.70539525222,30.6111822471035, 7,21, 5,60,48.5266892957652, 7,21,15,60
3095,2.67201798058877,2.236200582953186E-002, 7,21, 5,60,3.544959812920857E-002, 7,21,15,60
3116,6.89110826101354,5.767139451313306E-002, 7,21, 5,60,9.142416716221788E-002, 7,21,15,60
3137,7.31323488009679,6.120415439173988E-002, 7,21, 5,60,9.702451084061076E-002, 7,21,15,60
3158,7.676611918173598E-002,6.424524150373648E-004, 7,21, 5,60,1.018454252441758E-003, 7,21,15,60
3179,22.0637315335262,0.184650439015841, 7,21, 5,60,0.292718994324247, 7,21,15,60
3200,0.0,0.0, 7,21, 1,15,0.0, 7,21, 1,15
3221,0.198856452154729,1.664221264463287E-003, 7,21, 5,60,2.638223756537762E-003, 7,21,15,60
3242,0.0,0.0, 7,21, 1,15,0.0, 7,21, 1,15
3263,0.0,0.0, 7,21, 1,15,0.0, 7,21, 1,15
3284,0.240655691085601,2.014037332855231E-003, 7,21, 5,60,3.192773251702336E-003, 7,21,15,60
3305,8.884242194416898E-005,7.435184837294673E-007, 7,21, 5,60,1.178670270045266E-006, 7,21,15,60
3326,2.798220784232215E-004,2.341819177262050E-006, 7,21, 5,60,3.712392768254253E-006, 7,21,15,60
3347,1372.25965768576,11.4843832218669, 7,21, 5,60,18.205735794924, 7,21,15,60
3368,0.0,0.0, 7,21, 1,15,0.0, 7,21, 1,15
3389,0.0,0.0, 7,21, 1,15,0.0, 7,21, 1,15
3619,1046.87922993055,8.76128813974685, 7,21, 5,60,13.8889215044413, 7,21,15,60
1,PHILADELPHIA INTERNATIONAL AP ANN CLG 1% CONDNS DP=>MDB,  37.62,-122.40,  -8.00,   2.00
5,1
11,20148307471.5052,160875498.859152, 7,21, 5,60,274419671.878112, 7,21,15,60
2970,0.0,0.0, 7,21, 1,15,0.0, 7,21, 1,15
3074,3386.93048596002,27.0431713582235, 7,21, 5,60,46.1299468427106, 7,21,15,60
3095,2.47421215750084,1.975551125990392E-002, 7,21, 5,60,3.369873570663217E-002, 7,21,15,60
3116,6.38096897622569,5.094927048869359E-002, 7,21, 5,60,8.690871008379811E-002, 7,21,15,60
3137,6.77184614117289,5.407025516656115E-002, 7,21, 5,60,9.223245171823348E-002, 7,21,15,60
3158,7.108322875947028E-002,5.675687599750900E-004, 7,21, 5,60,9.681526023859795E-004, 7,21,15,60
3179,20.4303837761063,0.163127755843181, 7,21, 5,60,0.278261547284406, 7,21,15,60
3200,0.0,0.0, 7,21, 1,15,0.0, 7,21, 1,15
3221,0.184135381982086,1.470241184073795E-003, 7,21, 5,60,2.507921381294067E-003, 7,21,15,60
3242,0.0,0.0, 7,21, 1,15,0.0, 7,21, 1,15
3263,0.0,0.0, 7,21, 1,15,0.0, 7,21, 1,15
3284,0.222840280634847,1.779283017382227E-003, 7,21, 5,60,3.035081570971920E-003, 7,21,15,60
3305,8.226553940615566E-005,6.568546618419196E-007, 7,21, 5,60,1.120455520278332E-006, 7,21,15,60
3326,2.591072340835567E-004,2.068858915328701E-006, 7,21, 5,60,3.529036980352522E-006, 7,21,15,60
3347,1270.67315899795,10.1457742110513, 7,21, 5,60,17.306551026665, 7,21,15,60
3368,0.0,0.0, 7,21, 1,15,0.0, 7,21, 1,15
3389,0.0,0.0, 7,21, 1,15,0.0, 7,21, 1,15
3619,969.38019764318,7.74008055518225, 7,21, 5,60,13.2029450185132, 7,21,15,60
1,PHILADELPHIA INTERNATIONAL AP ANN CLG 1% CONDNS ENTH=>MDB,  37.62,-122.40,  -8.00,   2.00
5,1
11,24748318596.6663,178443723.213706, 7,21, 5,60,322806050.740732, 7,21,14,60
2970,0.0,0.0, 7,21, 1,15,0.0, 7,21, 1,15
3074,4160.19235609961,29.996389872224, 7,21, 5,60,54.263697129517, 7,21,14,60
3095,3.03909352367063,2.191288921064314E-002, 7,21, 5,60,3.964058303096187E-002, 7,21,14,60
3116,7.83779249956423,5.651312714178078E-002, 7,21, 5,60,0.10223267626959, 7,21,14,60
3137,8.31790988033956,5.997493537212668E-002, 7,21, 5,60,0.10849511365396, 7,21,14,60
3158,8.731206800903885E-002,6.295494554979558E-004, 7,21, 5,60,1.138859747013302E-003, 7,21,14,60
3179,25.0947950570197,0.180941935338698, 7,21, 5,60,0.327325335451102, 7,21,14,60
3200,0.0,0.0, 7,21, 1,15,0.0, 7,21, 1,15
3221,0.226174883654934,1.630797186450062E-003, 7,21, 5,60,2.950124497719548E-003, 7,21,14,60
3242,0.0,0.0, 7,21, 1,15,0.0, 7,21, 1,15
3263,0.0,0.0, 7,21, 1,15,0.0, 7,21, 1,15
3284,0.27371640367913,1.973587578743592E-003, 7,21, 5,60,3.570234921192494E-003, 7,21,14,60
3305,1.010473848301887E-004,7.285857218815629E-007, 7,21, 5,60,1.318017105174408E-006, 7,21,14,60
3326,3.182633771531291E-004,2.294786280528263E-006, 7,21, 5,60,4.151285812525811E-006, 7,21,14,60
3347,1560.77746061736,11.2537318481956, 7,21, 5,60,20.358086396015, 7,21,14,60
3368,0.0,0.0, 7,21, 1,15,0.0, 7,21, 1,15
3389,0.0,0.0, 7,21, 1,15,0.0, 7,21, 1,15
3619,1190.69703529696,8.58532717558162, 7,21, 5,60,15.5309220742246, 7,21,14,60
1,PHILADELPHIA INTERNATIONAL AP ANN CLG 1% CONDNS WB=>MDB,  37.62,-122.40,  -8.00,   2.00
5,1
11,22607694955.0327,180157313.621651, 7,21, 5,60,302357229.41572, 7,21,15,60
2970,0.0,0.0, 7,21, 1,15,0.0, 7,21, 1,15
3074,3800.35352194099,30.2844444197996, 7,21, 5,60,50.8262502647826, 7,21,15,60
3095,2.77622494047801,2.212331811273877E-002, 7,21, 5,60,3.712946777225046E-002, 7,21,15,60
3116,7.15985699225884,5.705582122397694E-002, 7,21, 5,60,9.575653455595864E-002, 7,21,15,60
3137,7.59844627438648,6.055087310823697E-002, 7,21, 5,60,0.101622264806624, 7,21,15,60
3158,7.975994780135522E-002,6.355950024571855E-004, 7,21, 5,60,1.066716305378661E-003, 7,21,15,60
3179,22.9242026844031,0.182679516012354, 7,21, 5,60,0.30659023062754, 7,21,15,60
3200,0.0,0.0, 7,21, 1,15,0.0, 7,21, 1,15
3221,0.206611724194043,1.646457689188271E-003, 7,21, 5,60,2.763242719630269E-003, 7,21,15,60
3242,0.0,0.0, 7,21, 1,15,0.0, 7,21, 1,15
3263,0.0,0.0, 7,21, 1,15,0.0, 7,21, 1,15
3284,0.250041106202661,1.992539888655462E-003, 7,21, 5,60,3.344070957337868E-003, 7,21,15,60
3305,9.230721850139837E-005,7.355823115172019E-007, 7,21, 5,60,1.234524567704386E-006, 7,21,15,60
3326,2.907349571217199E-004,2.316823053174435E-006, 7,21, 5,60,3.888313970286164E-006, 7,21,15,60
3347,1425.77689003409,11.3618011408631, 7,21, 5,60,19.0684610303318, 7,21,15,60
3368,0.0,0.0, 7,21, 1,15,0.0, 7,21, 1,15
3389,0.0,0.0, 7,21, 1,15,0.0, 7,21, 1,15
3619,1087.7068376468,8.66777184795334, 7,21, 5,60,14.5470834820429, 7,21,15,60
1,PHILADELPHIA INTERNATIONAL AP ANN CLG 2% CONDNS DB=>MWB,  37.62,-122.40,  -8.00,   2.00
5,1
11,20224646639.2327,174343238.900876, 7,21, 5,60,263761799.139332, 7,21,15,60
2970,0.0,0.0, 7,21, 1,15,0.0, 7,21, 1,15
3074,3399.76310005502,29.3070984592373, 7,21, 5,60,44.3383584353217, 7,21,15,60
3095,2.48358660729777,2.140934973702762E-002, 7,21, 5,60,3.238994893430994E-002, 7,21,15,60
3116,6.40514559064499,5.521450375990754E-002, 7,21, 5,60,8.353336178742637E-002, 7,21,15,60
3137,6.79750373544611,5.859676259458454E-002, 7,21, 5,60,8.865034069072941E-002, 7,21,15,60
3158,7.135255334321290E-002,6.150829468422918E-004, 7,21, 5,60,9.305516273635625E-004, 7,21,15,60
3179,20.5077916921819,0.176784044245489, 7,21, 5,60,0.267454464327282, 7,21,15,60
3200,0.0,0.0, 7,21, 1,15,0.0, 7,21, 1,15
3221,0.184833045635947,1.593322860315109E-003, 7,21, 5,60,2.410519082334353E-003, 7,21,15,60
3242,0.0,0.0, 7,21, 1,15,0.0, 7,21, 1,15
3263,0.0,0.0, 7,21, 1,15,0.0, 7,21, 1,15
3284,0.223684591829914,1.928236222243693E-003, 7,21, 5,60,2.917205498481010E-003, 7,21,15,60
3305,8.257723222798708E-005,7.118434444322782E-007, 7,21, 5,60,1.076939425885892E-006, 7,21,15,60
3326,2.600889557805323E-004,2.242054052265270E-006, 7,21, 5,60,3.391976736931807E-006, 7,21,15,60
3347,1275.48756494985,10.9951307045227, 7,21, 5,60,16.6344016245211, 7,21,15,60
3368,0.0,0.0, 7,21, 1,15,0.0, 7,21, 1,15
3389,0.0,0.0, 7,21, 1,15,0.0, 7,21, 1,15
3619,973.05304597569,8.38804369163512, 7,21, 5,60,12.6901708911287, 7,21,15,60
1,PHILADELPHIA INTERNATIONAL AP ANN CLG 2% CONDNS DP=>MDB,  37.62,-122.40,  -8.00,   2.00
5,1
11,19344146444.8094,157926417.479039, 7,21, 5,60,259513958.961805, 7,21,15,60
2970,0.0,0.0, 7,21, 1,15,0.0, 7,21, 1,15
3074,3251.75101737246,26.5474307782265, 7,21, 5,60,43.6242965014795, 7,21,15,60
3095,2.37546118342259,1.939336406642602E-002, 7,21, 5,60,3.186831416050968E-002, 7,21,15,60
3116,6.12629117907113,5.001529641561173E-002, 7,21, 5,60,8.218807080320371E-002, 7,21,15,60
3137,6.50156762010043,5.307906891470508E-002, 7,21, 5,60,8.722264160706272E-002, 7,21,15,60
3158,6.824614865728751E-002,5.571644008660504E-004, 7,21, 5,60,9.155652472172488E-004, 7,21,15,60
3179,19.6149644950367,0.160137387323746, 7,21, 5,60,0.26314715438727, 7,21,15,60
3200,0.0,0.0, 7,21, 1,15,0.0, 7,21, 1,15
3221,0.176786154359113,1.443289529340940E-003, 7,21, 5,60,2.371698070951938E-003, 7,21,15,60
3242,0.0,0.0, 7,21, 1,15,0.0, 7,21, 1,15
3263,0.0,0.0, 7,21, 1,15,0.0, 7,21, 1,15
3284,0.213946259679592,1.746666177318174E-003, 7,21, 5,60,2.870224386117566E-003, 7,21,15,60
3305,7.898214993415667E-005,6.448135625669172E-007, 7,21, 5,60,1.059595494441051E-006, 7,21,15,60
3326,2.487657232802486E-004,2.030933728780445E-006, 7,21, 5,60,3.337349512248815E-006, 7,21,15,60
3347,1219.95793968835,9.95978744473309, 7,21, 5,60,16.3665073358852, 7,21,15,60
3368,0.0,0.0, 7,21, 1,15,0.0, 7,21, 1,15
3389,0.0,0.0, 7,21, 1,15,0.0, 7,21, 1,15
3619,930.690209608315,7.59819364507017, 7,21, 5,60,12.4857977865059, 7,21,15,60
1,PHILADELPHIA INTERNATIONAL AP ANN CLG 2% CONDNS ENTH=>MDB,  37.62,-122.40,  -8.00,   2.00
5,1
11,23252917263.6116,169303937.095769, 7,21, 5,60,320711243.80414, 7,21,14,60
2970,0.0,0.0, 7,21, 1,15,0.0, 7,21, 1,15
3074,3908.81539201312,28.4599918257987, 7,21, 5,60,53.911560083476, 7,21,14,60
3095,2.85545823997151,2.079052347536038E-002, 7,21, 5,60,3.938334073914843E-002, 7,21,14,60
3116,7.3641988973858,5.361855687822991E-002, 7,21, 5,60,0.101569250912771, 7,21,14,60
3137,7.81530549229987,5.690305325788782E-002, 7,21, 5,60,0.107791049042572, 7,21,14,60
3158,8.203629210602184E-002,5.973042900738716E-004, 7,21, 5,60,1.131469268141007E-003, 7,21,14,60
3179,23.5784581053022,0.171674192215109, 7,21, 5,60,0.325201201217398, 7,21,14,60
3200,0.0,0.0, 7,21, 1,15,0.0, 7,21, 1,15
3221,0.212508410872147,1.547268681118229E-003, 7,21, 5,60,2.930980057126038E-003, 7,21,14,60
3242,0.0,0.0, 7,21, 1,15,0.0, 7,21, 1,15
3263,0.0,0.0, 7,21, 1,15,0.0, 7,21, 1,15
3284,0.257177264935545,1.872501544279201E-003, 7,21, 5,60,3.547066356473793E-003, 7,21,14,60
3305,9.494166118732630E-005,6.912679751620231E-007, 7,21, 5,60,1.309464008452305E-006, 7,21,14,60
3326,2.990325160100456E-004,2.177248631051584E-006, 7,21, 5,60,4.124346595321245E-006, 7,21,14,60
3347,1466.46848014693,10.6773220968817, 7,21, 5,60,20.2259753017519, 7,21,14,60
3368,0.0,0.0, 7,21, 1,15,0.0, 7,21, 1,15
3389,0.0,0.0, 7,21, 1,15,0.0, 7,21, 1,15
3619,1118.74992798571,8.14559159551103, 7,21, 5,60,15.4301362208675, 7,21,14,60
1,PHILADELPHIA INTERNATIONAL AP ANN CLG 2% CONDNS WB=>MDB,  37.62,-122.40,  -8.00,   2.00
5,1
11,20896812368.3706,169303937.095634, 7,21, 5,60,277191025.337579, 7,21,15,60
2970,0.0,0.0, 7,21, 1,15,0.0, 7,21, 1,15
3074,3512.7541591231,28.4599918257761, 7,21, 5,60,46.595811359247, 7,21,15,60
3095,2.56612855883591,2.079052347534384E-002, 7,21, 5,60,3.403905791145471E-002, 7,21,15,60
3116,6.61802047706298,5.361855687818725E-002, 7,21, 5,60,8.778639772441128E-002, 7,21,15,60
3137,7.02341863700937,5.690305325784254E-002, 7,21, 5,60,9.316390361596032E-002, 7,21,15,60
3158,7.372395403561158E-002,5.973042900733963E-004, 7,21, 5,60,9.779299373909789E-004, 7,21,15,60
3179,21.1893677415278,0.171674192214973, 7,21, 5,60,0.281071699692305, 7,21,15,60
3200,0.0,0.0, 7,21, 1,15,0.0, 7,21, 1,15
3221,0.190975968234539,1.547268681116998E-003, 7,21, 5,60,2.533248780560135E-003, 7,21,15,60
3242,0.0,0.0, 7,21, 1,15,0.0, 7,21, 1,15
3263,0.0,0.0, 7,21, 1,15,0.0, 7,21, 1,15
3284,0.231118744794179,1.872501544277711E-003, 7,21, 5,60,3.065732740233625E-003, 7,21,15,60
3305,8.532168490005726E-005,6.912679751614731E-007, 7,21, 5,60,1.131770956453335E-006, 7,21,15,60
3326,2.687330070572463E-004,2.177248631049852E-006, 7,21, 5,60,3.564676585841267E-006, 7,21,15,60
3347,1317.87836882366,10.6773220968732, 7,21, 5,60,17.4813292039398, 7,21,15,60
3368,0.0,0.0, 7,21, 1,15,0.0, 7,21, 1,15
3389,0.0,0.0, 7,21, 1,15,0.0, 7,21, 1,15
3619,1005.39244462157,8.14559159550455, 7,21, 5,60,13.3362810403143, 7,21,15,60
1,PHILADELPHIA INTERNATIONAL AP ANN HTG 99% CONDNS DB,  37.62,-122.40,  -8.00,   2.00
5,1
11,580202679.997234,6043777.91663786, 1,21, 2,60,6043777.91663786, 1,21, 5,45
2970,60665186667.6355,600915596.804974, 1,21,12,60,662950445.911542, 1,21, 2,45
3074,3258.18829589134,32.3236616613259, 1,21,12,60,35.5556772997782, 1,21, 2,45
3095,2.49178983714232,2.471870824068158E-002, 1,21,12,60,2.719389872003366E-002, 1,21, 2,45
3116,0.248055286622818,2.551034998812483E-003, 1,21,12,60,2.616791938865446E-003, 1,21, 2,45
3137,3.06446945012623,3.045462148665724E-002, 1,21,12,60,3.338886984939792E-002, 1,21, 2,45
3158,6.635205292272381E-002,6.582929811031704E-004, 1,21,12,60,7.240499211561330E-004, 1,21, 2,45
3179,0.604583787544122,6.289436187414525E-003, 1,21,12,60,6.306061526975085E-003, 1,21, 2,45
3200,0.0,0.0, 1,21, 1,15,0.0, 1,21, 1,15
3221,0.223090492429306,2.212521078910009E-003, 1,21,12,60,2.435226187202589E-003, 1,21, 2,45
3242,0.0,0.0, 1,21, 1,15,0.0, 1,21, 1,15
3263,0.0,0.0, 1,21, 1,15,0.0, 1,21, 1,15
3284,0.164753178843298,1.635233891418996E-003, 1,21,12,60,1.797144847587139E-003, 1,21, 2,45
3305,9.102803262536249E-006,9.137837647898447E-008, 1,21,12,60,9.826424472981356E-008, 1,21, 2,45
3326,2.038309122497079E-005,2.057180061274223E-007, 1,21,12,60,2.189314289871214E-007, 1,21, 2,45
3347,36.5910622167056,0.381156898090683, 1,21, 2,60,0.381156898090683, 1,21, 5,45
3368,0.0,0.0, 1,21, 1,15,0.0, 1,21, 1,15
3389,0.0,0.0, 1,21, 1,15,0.0, 1,21, 1,15
3619,895.420340132671,8.88380656142475, 1,21,12,60,9.77089807323958, 1,21, 2,45
1,PHILADELPHIA INTERNATIONAL AP ANN HTG 99.6% CONDNS DB,  37.62,-122.40,  -8.00,   2.00
5,1
11,580202679.997234,6043777.91663786, 1,21, 1,15,6043777.91663786, 1,21, 4,45
2970,65698200145.0475,661165116.110219, 1,21,13,30,704634630.609172, 1,21, 1,15
3074,3520.40829806452,35.4626616171293, 1,21,13,30,37.7274233225247, 1,21, 1,15
3095,2.69260707489106,2.712266406096089E-002, 1,21,13,30,2.885709768946911E-002, 1,21, 1,15
3116,0.253390280908875,2.614899489276043E-003, 1,21,13,30,2.660977174644934E-003, 1,21, 4,45
3137,3.30253098760782,3.330442374979536E-002, 1,21,13,30,3.536053178559583E-002, 1,21, 1,15
3158,7.168704720878070E-002,7.221574715667309E-004, 1,21,13,30,7.682351569356210E-004, 1,21, 1,15
3179,0.605932635156069,6.305583058588329E-003, 1,21,13,30,6.317232888474050E-003, 1,21, 4,45
3200,0.0,0.0, 1,21, 1,15,0.0, 1,21, 1,15
3221,0.241159010813216,2.428816853215841E-003, 1,21,13,30,2.584872410267082E-003, 1,21, 1,15
3242,0.0,0.0, 1,21, 1,15,0.0, 1,21, 1,15
3263,0.0,0.0, 1,21, 1,15,0.0, 1,21, 1,15
3284,0.177889344019344,1.792485136805687E-003, 1,21,13,30,1.905940569647955E-003, 1,21, 1,15
3305,9.661467758528991E-006,9.806607312186673E-008, 1,21,13,30,1.028911892312505E-007, 1,21, 1,15
3326,2.145512309565956E-005,2.185511537394396E-007, 1,21,13,30,2.278101603277166E-007, 1,21, 1,30
3347,36.5910622167056,0.381156898090683, 1,21, 1,15,0.381156898090683, 1,21, 4,45
3368,0.0,0.0, 1,21, 1,15,0.0, 1,21, 1,15
3389,0.0,0.0, 1,21, 1,15,0.0, 1,21, 1,15
3619,967.391878694681,9.74536805365619, 1,21,13,30,10.3669773247369, 1,21, 1,15
1,PHILADELPHIA INTERNATIONAL AP ANN HTG WIND 99% CONDNS WS=>MCDB,  37.62,-122.40,  -8.00,   2.00
5,1
11,580202679.997234,6043777.91663786, 1,21, 1,30,6043777.91663786, 1,21, 2,45
2970,41719682315.4891,384153028.449132, 1,21,16,60,485025181.939921, 1,21,20,45
3074,2271.12751914452,21.0303318499866, 1,21,16,60,26.2857710468567, 1,21,20,45
3095,1.73586421349168,1.606988176328350E-002, 1,21,16,60,2.009468068756599E-002, 1,21,20,45
3116,0.227973052009543,2.321266676355291E-003, 1,21,16,60,2.428191159055527E-003, 1,21,20,45
3137,2.16834709426971,2.020175200342594E-002, 1,21,16,60,2.497300486354027E-002, 1,21,20,45
3158,4.626981830944873E-002,4.285246586459785E-004, 1,21,16,60,5.354491413462150E-004, 1,21,20,45
3179,0.599506392377747,6.231343819095159E-003, 1,21,16,60,6.258377556230690E-003, 1,21,20,45
3200,0.0,0.0, 1,21, 1,15,0.0, 1,21, 1,15
3221,0.155076131805101,1.434343458512538E-003, 1,21,16,60,1.796474489544471E-003, 1,21,20,45
3242,0.0,0.0, 1,21, 1,15,0.0, 1,21, 1,15
3263,0.0,0.0, 1,21, 1,15,0.0, 1,21, 1,15
3284,0.115305412484196,1.069483588010250E-003, 1,21,16,60,1.332759908621210E-003, 1,21,20,45
3305,6.999852279448002E-006,6.731773139148607E-008, 1,21,16,60,7.851454042896366E-008, 1,21,20,45
3326,1.634769879796363E-005,1.595475790676281E-007, 1,21,16,60,1.810333477611661E-007, 1,21,20,45
3347,36.5910622167056,0.381156898090683, 1,21, 1,30,0.381156898090683, 1,21, 2,45
3368,0.0,0.0, 1,21, 1,15,0.0, 1,21, 1,15
3389,0.0,0.0, 1,21, 1,15,0.0, 1,21, 1,15
3619,624.501713910681,5.78412570079557, 1,21,16,60,7.22658638908452, 1,21,20,45
1,PHILADELPHIA INTERNATIONAL AP ANN HTG WIND 99.6% CONDNS WS=>MCDB,  37.62,-122.40,  -8.00,   2.00
5,1
11,580202679.997234,6043777.91663786, 1,21, 1,15,6043777.91663786, 1,21, 1,45
2970,37702918658.1142,342527626.233139, 1,21,16,60,442957972.485297, 1,21,23,60
3074,2061.85413259529,18.8616483945334, 1,21,16,60,24.0940694342708, 1,21,23,60
3095,1.57559534356242,1.440902821486536E-002, 1,21,16,60,1.841619903032650E-002, 1,21,23,60
3116,0.223715282532725,2.277143750006338E-003, 1,21,16,60,2.383599917033626E-003, 1,21,23,60
3137,1.97835417327587,1.823287047860945E-002, 1,21,16,60,2.298322585633655E-002, 1,21,23,60
3158,4.201204883263127E-002,3.844017322970255E-004, 1,21,16,60,4.908578993243136E-004, 1,21,23,60
3179,0.598429899717571,6.220188211301273E-003, 1,21,16,60,6.247103544096850E-003, 1,21,23,60
3200,0.0,0.0, 1,21, 1,15,0.0, 1,21, 1,15
3221,0.140655950275125,1.284908264557121E-003, 1,21,16,60,1.645453207602371E-003, 1,21,23,60
3242,0.0,0.0, 1,21, 1,15,0.0, 1,21, 1,15
3263,0.0,0.0, 1,21, 1,15,0.0, 1,21, 1,15
3284,0.104821659338447,9.608412882265069E-004, 1,21,16,60,1.222964491944641E-003, 1,21,23,60
3305,6.553991513479382E-006,6.269731174551079E-008, 1,21,16,60,7.384508017950040E-008, 1,21,23,60
3326,1.549212813894277E-005,1.506813683956215E-007, 1,21,16,60,1.720730321473312E-007, 1,21,23,60
3347,36.5910622167056,0.381156898090683, 1,21, 1,15,0.381156898090683, 1,21, 1,45
3368,0.0,0.0, 1,21, 1,15,0.0, 1,21, 1,15
3389,0.0,0.0, 1,21, 1,15,0.0, 1,21, 1,15
3619,567.062435879999,5.1888870323134, 1,21,16,60,6.62502992573556, 1,21,23,60
1,PHILADELPHIA INTERNATIONAL AP ANN HUM_N 99% CONDNS DP=>MCDB,  37.62,-122.40,  -8.00,   2.00
5,1
11,580202679.997234,6043777.91663786, 1,21, 1,30,6043777.91663786, 1,21, 1,60
2970,56340421691.3189,558184243.629118, 1,21,15,30,615576612.959482, 1,21,22,45
3074,3032.86804062525,30.0973581608639, 1,21,15,30,33.0875006029758, 1,21,22,45
3095,2.31923171458729,2.301372724896495E-002, 1,21,15,30,2.530368278524645E-002, 1,21,22,45
3116,0.243471035747922,2.505739764446076E-003, 1,21,15,30,2.566575675936262E-003, 1,21,22,45
3137,2.85990806674646,2.843342848143928E-002, 1,21,15,30,3.114808755076548E-002, 1,21,22,45
3158,6.176780204782831E-002,6.129977467367637E-004, 1,21,15,30,6.738336582269491E-004, 1,21,22,45
3179,0.60342475053047,6.277984184763395E-003, 1,21,15,30,6.293365339743933E-003, 1,21,22,45
3200,0.0,0.0, 1,21, 1,15,0.0, 1,21, 1,15
3221,0.20756458616433,2.059115521008688E-003, 1,21,15,30,2.265154126904693E-003, 1,21,22,45
3242,0.0,0.0, 1,21, 1,15,0.0, 1,21, 1,15
3263,0.0,0.0, 1,21, 1,15,0.0, 1,21, 1,15
3284,0.153465542255112,1.523705059630013E-003, 1,21,15,30,1.673499143582262E-003, 1,21,22,45
3305,8.622754350165110E-006,8.663519627646452E-008, 1,21,15,30,9.300574927213486E-008, 1,21,22,45
3326,1.946191628501537E-005,1.966162279009651E-007, 1,21,15,30,2.088408025683325E-007, 1,21,22,45
3347,36.5910622167056,0.381156898090683, 1,21, 1,30,0.381156898090683, 1,21, 1,60
3368,0.0,0.0, 1,21, 1,15,0.0, 1,21, 1,15
3389,0.0,0.0, 1,21, 1,15,0.0, 1,21, 1,15
3619,833.576677153918,8.27275291598839, 1,21,15,30,9.09345747816837, 1,21,22,45
1,PHILADELPHIA INTERNATIONAL AP ANN HUM_N 99.6% CONDNS DP=>MCDB,  37.62,-122.40,  -8.00,   2.00
5,1
11,580202679.997234,6043777.91663786, 1,21, 1,30,6043777.91663786, 1,21,24,30
2970,61430652502.8531,608482625.11056, 1,21,16,60,671368490.046059, 1,21, 5,15
3074,3298.06906590618,32.717903836047, 1,21,16,60,35.9942573991865, 1,21, 5,15
3095,2.5223319239675,2.502063267007449E-002, 1,21,16,60,2.752977868100088E-002, 1,21, 5,15
3116,0.248866680408148,2.559056048816405E-003, 1,21,16,60,2.625715065648033E-003, 1,21, 5,15
3137,3.10067598413202,3.081254192551149E-002, 1,21,16,60,3.378704333696056E-002, 1,21, 5,15
3158,6.716344670805445E-002,6.663140311070924E-004, 1,21,16,60,7.329730479387206E-004, 1,21, 5,15
3179,0.604788932387961,6.291464151000421E-003, 1,21,16,60,6.308317562803134E-003, 1,21, 5,15
3200,0.0,0.0, 1,21, 1,15,0.0, 1,21, 1,15
3221,0.225838514777737,2.239686710527065E-003, 1,21,16,60,2.465446965645504E-003, 1,21, 5,15
3242,0.0,0.0, 1,21, 1,15,0.0, 1,21, 1,15
3263,0.0,0.0, 1,21, 1,15,0.0, 1,21, 1,15
3284,0.166751044673216,1.654983835296577E-003, 1,21,16,60,1.819115942778228E-003, 1,21, 5,15
3305,9.187769970245398E-006,9.221831662090459E-008, 1,21,16,60,9.919864762874491E-008, 1,21, 5,15
3326,2.054613544787215E-005,2.073297831565123E-007, 1,21,16,60,2.207244723877734E-007, 1,21, 5,15
3347,36.5910622167056,0.381156898090683, 1,21, 1,30,0.381156898090683, 1,21,24,30
3368,0.0,0.0, 1,21, 1,15,0.0, 1,21, 1,15
3389,0.0,0.0, 1,21, 1,15,0.0, 1,21, 1,15
3619,906.366417293902,8.99201423301942, 1,21,16,60,9.891275177486, 1,21, 5,15
1,RUN PERIOD 1,  37.62,-122.40,  -8.00,   2.00
5,365
11,2461546181917.73,27108406.4892468, 5,10,21,15,170052446.825833, 6,30,14,60
2970,659962356278.497,0.0, 1, 1,15,45,229694837.222568,12,27, 7,30
3074,448169.951942486,4.55692313084239, 5,10,21,15,30.2980825932403,11,30, 9,15